 Gaussian 09, Revision D.01,
 Gaussian 09:  ES64L-G09RevD.01 24-Apr-2013

 --------------------------
 #pbepbe 6-31g* opt Pop=ESP
 --------------------------

 --------
 high_pop
 --------
 Symbolic Z-matrix:
 Charge =  0 Multiplicity = 1

 SCF Done:  E(RPBE-PBE) =  -631.409148958     A.U. after   18 cycles
 SCF Done:  E(RPBE-PBE) =  -631.415149693     A.U. after   15 cycles
 SCF Done:  E(RPBE-PBE) =  -631.417360376     A.U. after   15 cycles
 SCF Done:  E(RPBE-PBE) =  -631.419813647     A.U. after   14 cycles
 SCF Done:  E(RPBE-PBE) =  -631.419833857     A.U. after   14 cycles
 SCF Done:  E(RPBE-PBE) =  -631.419205287     A.U. after   14 cycles
 SCF Done:  E(RPBE-PBE) =  -631.420259564     A.U. after   12 cycles
 SCF Done:  E(RPBE-PBE) =  -631.420369248     A.U. after   13 cycles
 SCF Done:  E(RPBE-PBE) =  -631.420501648     A.U. after   13 cycles
 SCF Done:  E(RPBE-PBE) =  -631.420541102     A.U. after   12 cycles
 SCF Done:  E(RPBE-PBE) =  -631.420555502     A.U. after   12 cycles
 SCF Done:  E(RPBE-PBE) =  -631.420560283     A.U. after   11 cycles
 SCF Done:  E(RPBE-PBE) =  -631.420562402     A.U. after    9 cycles
 SCF Done:  E(RPBE-PBE) =  -631.420563537     A.U. after    9 cycles
 SCF Done:  E(RPBE-PBE) =  -631.420564277     A.U. after    8 cycles
 SCF Done:  E(RPBE-PBE) =  -631.420564453     A.U. after    8 cycles
 Optimization completed.
    -- Stationary point found.

                         Standard orientation:
 ---------------------------------------------------------------------
 Center     Atomic      Atomic             Coordinates (Angstroms)
 Number     Number       Type             X           Y           Z
 ---------------------------------------------------------------------
      1          6           0       -1.351345    0.049662   -0.012907
      2          6           0       -0.008970   -0.579698   -0.041381
      3          6           0       -2.508547   -0.800838    0.006595
      4          6           0       -1.558537    1.450514   -0.005290
      5          6           0        1.194488    0.237127   -0.028147
      6          8           0        0.083832   -1.850594   -0.068586
      7          6           0       -3.800924   -0.227356    0.039122
      8          8           0       -2.411735   -2.138782   -0.004075
      9          6           0       -2.835417    2.006325    0.024447
     10          1           0       -0.695911    2.122847   -0.027526
     11          6           0        2.416245   -0.391801   -0.035051
     12          1           0        1.118770    1.324277    0.009728
     13          6           0       -3.959290    1.155206    0.048175
     14          1           0       -4.658866   -0.905831    0.055175
     15          1           0       -1.399149   -2.313661   -0.034058
     16          1           0       -2.963054    3.092933    0.028558
     17          1           0        2.413754   -1.488165   -0.029018
     18          7           0        3.644472    0.186107   -0.069311
     19          1           0       -4.967728    1.582487    0.072433
     20          6           0        3.781830    1.634686   -0.059377
     21          6           0        4.847663   -0.601843    0.155926
     22          1           0        3.095199    2.081494   -0.797969
     23          1           0        4.813384    1.904257   -0.333705
     24          1           0        3.555244    2.065085    0.936087
     25          1           0        4.610581   -1.670386    0.044284
     26          1           0        5.260897   -0.440266    1.171211
     27          1           0        5.625624   -0.334713   -0.581420
 ---------------------------------------------------------------------

 The electronic state is 1-A.
 Alpha  occ. eigenvalues --  -18.76709 -18.74365 -14.06503  -9.96666  -9.95333
 Alpha  occ. eigenvalues --   -9.95083  -9.95081  -9.94776  -9.90075  -9.89941
 Alpha  occ. eigenvalues --   -9.89857  -9.88944  -9.88926  -9.88666  -0.94761
 Alpha  occ. eigenvalues --   -0.90945  -0.89281  -0.75764  -0.70809  -0.67944
 Alpha  occ. eigenvalues --   -0.67580  -0.65075  -0.62585  -0.56432  -0.53402
 Alpha  occ. eigenvalues --   -0.52062  -0.49252  -0.47525  -0.44451  -0.43706
 Alpha  occ. eigenvalues --   -0.43575  -0.43131  -0.39743  -0.38453  -0.37888
 Alpha  occ. eigenvalues --   -0.37256  -0.36485  -0.36070  -0.35755  -0.35698
 Alpha  occ. eigenvalues --   -0.32732  -0.31951  -0.31919  -0.30958  -0.28075
 Alpha  occ. eigenvalues --   -0.27834  -0.27621  -0.21520  -0.19458  -0.18439
 Alpha  occ. eigenvalues --   -0.17307
 Alpha virt. eigenvalues --   -0.07370  -0.01693  -0.00078   0.04536   0.05924
 Alpha virt. eigenvalues --    0.06266   0.08082   0.08463   0.09247   0.10197
 Alpha virt. eigenvalues --    0.10932   0.12553   0.13144   0.13965   0.14948

 Mulliken charges:
               1
     1  C    0.034869
     2  C    0.367333
     3  C    0.282912
     4  C   -0.196807
     5  C   -0.253441
     6  O   -0.575713
     7  C   -0.169563
     8  O   -0.613613
     9  C   -0.154009
    10  H    0.131714
    11  C    0.088196
    12  H    0.133855
    13  C   -0.138673
    14  H    0.144642
    15  H    0.430365
    16  H    0.129841
    17  H    0.182659
    18  N   -0.329583
    19  H    0.136995
    20  C   -0.368588
    21  C   -0.369099
    22  H    0.192764
    23  H    0.178160
    24  H    0.183198
    25  H    0.192710
    26  H    0.179988
    27  H    0.178888
 Sum of Mulliken charges =   0.00000

 Dipole moment (field-independent basis, Debye):
    X=              5.8185    Y=              3.2967    Z=              0.2068  Tot=              6.6907
 Quadrupole moment (field-independent basis, Debye-Ang):
   XX=            -57.6727   YY=            -81.5254   ZZ=            -85.4678
   XY=             -2.6927   XZ=              0.5190   YZ=             -0.3463

 ESP charges:
               1
     1  C   -0.326936
     2  C    0.552973
     3  C    0.454241
     4  C   -0.059101
     5  C   -0.463450
     6  O   -0.523806
     7  C   -0.304272
     8  O   -0.536644
     9  C   -0.208796
    10  H    0.105056
    11  C   -0.035515
    12  H    0.182269
    13  C   -0.068740
    14  H    0.167954
    15  H    0.418249
    16  H    0.132217
    17  H    0.149500
    18  N    0.152529
    19  H    0.124989
    20  C   -0.367231
    21  C   -0.394871
    22  H    0.134570
    23  H    0.146139
    24  H    0.139359
    25  H    0.147927
    26  H    0.146165
    27  H    0.135226
 Sum of ESP charges =   0.00000

 1\1\GINC-NXN33\FOpt\RPBEPBE\6-31G(d)\C11H13N1O2\BTX156\14-Feb-2018\0\\
 #pbepbe 6-31g* opt Pop=ESP\\high_pop\\0,1\C,1.6286298235,0.8833471336,
 0.1426789056\C,0.3063114678,0.5747662782,0.738605036\C,2.5577108756,1.
 6716927791,0.9030517102\C,2.0294458773,0.4433785298,-1.1422909454\C,-0
 .6568149328,-0.2476328693,0.0232481395\O,0.0209255132,1.0308437144,1.8
 940604047\C,3.8279351908,1.9766175832,0.361082772\O,2.2651691777,2.137
 3453636,2.1266389212\C,3.2818725174,0.7506463326,-1.668833847\H,1.3395
 76693,-0.1521807787,-1.7473040797\C,-1.8612222427,-0.5233321925,0.6246

 Normal termination of Gaussian 09 at Wed Feb 14 14:24:17 2018.
