 Gaussian 09, Revision D.01,
 Gaussian 09:  ES64L-G09RevD.01 24-Apr-2013

 ----------------------
 #hf/STO-3G opt Pop=ESP
 ----------------------

 -------
 low_pop
 -------
 Symbolic Z-matrix:
 Charge =  0 Multiplicity = 1

 SCF Done:  E(RHF) =  -620.396120427     A.U. after   16 cycles

 The electronic state is 1-A.
 Alpha  occ. eigenvalues --  -20.25847 -20.24807 -15.36921 -11.13336 -11.09643
 Alpha  occ. eigenvalues --  -11.09448 -11.09349 -11.08948 -11.03908 -11.03734
 Alpha  occ. eigenvalues --  -11.02314 -11.01662 -11.01459 -11.00978  -1.33366
 Alpha  occ. eigenvalues --   -1.28434  -1.19541  -1.08914  -1.00506  -0.96875
 Alpha  occ. eigenvalues --   -0.94099  -0.93678  -0.86892  -0.80590  -0.76618
 Alpha  occ. eigenvalues --   -0.73900  -0.69698  -0.65805  -0.62698  -0.61995
 Alpha  occ. eigenvalues --   -0.60923  -0.59479  -0.57431  -0.55056  -0.54557
 Alpha  occ. eigenvalues --   -0.53503  -0.52120  -0.51438  -0.50336  -0.49517
 Alpha  occ. eigenvalues --   -0.47487  -0.46764  -0.45877  -0.45553  -0.41062
 Alpha  occ. eigenvalues --   -0.40093  -0.39273  -0.31118  -0.28391  -0.25580
 Alpha  occ. eigenvalues --   -0.23277
 Alpha virt. eigenvalues --    0.19712   0.28028   0.29062   0.40467   0.52168
 Alpha virt. eigenvalues --    0.52622   0.56411   0.57681   0.60422   0.62240
 Alpha virt. eigenvalues --    0.63677   0.66549   0.66714   0.68356   0.69400

 Mulliken charges:
               1
     1  C   -0.071923
     2  C    0.205126
     3  C    0.141582
     4  C   -0.047524
     5  C   -0.140851
     6  O   -0.280364
     7  C   -0.092087
     8  O   -0.323272
     9  C   -0.085860
    10  H    0.063699
    11  C    0.074437
    12  H    0.061537
    13  C   -0.044947
    14  H    0.071058
    15  H    0.255124
    16  H    0.059377
    17  H    0.090152
    18  N   -0.264434
    19  H    0.066873
    20  C   -0.083575
    21  C   -0.081794
    22  H    0.077082
    23  H    0.074811
    24  H    0.062254
    25  H    0.077026
    26  H    0.062129
    27  H    0.074361
 Sum of Mulliken charges =   0.00000

 Dipole moment (field-independent basis, Debye):
    X=              3.3865    Y=              2.4102    Z=              0.7711  Tot=              4.2275
 Quadrupole moment (field-independent basis, Debye-Ang):
   XX=            -68.3146   YY=            -78.6542   ZZ=            -78.4372
   XY=             -3.9069   XZ=              3.0846   YZ=             -0.1541

 ESP charges:
               1
     1  C   -0.404039
     2  C    0.663468
     3  C    0.545062
     4  C    0.026051
     5  C   -0.473824
     6  O   -0.450473
     7  C   -0.301440
     8  O   -0.573535
     9  C   -0.154000
    10  H    0.044737
    11  C    0.248240
    12  H    0.165678
    13  C    0.024179
    14  H    0.115532
    15  H    0.381612
    16  H    0.071703
    17  H    0.060068
    18  N   -0.215565
    19  H    0.063878
    20  C   -0.237746
    21  C   -0.257706
    22  H    0.087827
    23  H    0.117421
    24  H    0.115914
    25  H    0.096430
    26  H    0.129902
    27  H    0.110624
 Sum of ESP charges =   0.00000

 Optimization completed.
    -- Stationary point found.

                         Standard orientation:
 ---------------------------------------------------------------------
 Center     Atomic      Atomic             Coordinates (Angstroms)
 Number     Number       Type             X           Y           Z
 ---------------------------------------------------------------------
      1          6           0       -1.374629    0.056873   -0.017871
      2          6           0       -0.016128   -0.611950   -0.074270
      3          6           0       -2.514207   -0.771288    0.016367
      4          6           0       -1.554270    1.443239    0.001334
      5          6           0        1.236707    0.210531   -0.108438
      6          8           0        0.050703   -1.851125   -0.087562
      7          6           0       -3.793345   -0.191113    0.068599
      8          8           0       -2.433645   -2.142738    0.001268
      9          6           0       -2.810705    2.003453    0.052644
     10          1           0       -0.693566    2.097035   -0.024493
     11          6           0        2.410907   -0.405372   -0.143486
     12          1           0        1.154871    1.281278   -0.105159
     13          6           0       -3.933944    1.175964    0.086261
     14          1           0       -4.653886   -0.844786    0.094139
     15          1           0       -1.452039   -2.321964   -0.037572
     16          1           0       -2.926814    3.077784    0.066633
     17          1           0        2.426604   -1.493676   -0.135945
     18          7           0        3.698206    0.175962   -0.262361
     19          1           0       -4.924129    1.614857    0.126601
     20          6           0        3.800580    1.634638   -0.055764
     21          6           0        4.797033   -0.598741    0.355476
     22          1           0        3.151876    2.151602   -0.760326
     23          1           0        4.827063    1.941819   -0.245924
     24          1           0        3.527629    1.936693    0.959033
     25          1           0        4.697327   -1.647019    0.080363
     26          1           0        4.803782   -0.522556    1.446475
     27          1           0        5.749391   -0.229305   -0.022054
 ---------------------------------------------------------------------

 Normal termination of Gaussian 09 at Wed Feb 14 14:12:19 2018.
