 Gaussian 09, Revision D.01,
 Gaussian 09:  ES64L-G09RevD.01 24-Apr-2013

 ----------------------------------------
 #wb97xd 6-311++g** geom=allcheck pop=nbo
 ----------------------------------------

 Structure from the checkpoint file:  "H_opt_NBO.chk"
 -----------------
 Geom Opt H bigbas
 -----------------
 Charge =  0 Multiplicity = 1

                         Standard orientation:
 ---------------------------------------------------------------------
 Center     Atomic      Atomic             Coordinates (Angstroms)
 Number     Number       Type             X           Y           Z
 ---------------------------------------------------------------------
      1          6           0        4.776544   -0.493715    0.081039
      2          6           0        5.918572    0.316862    0.088162
      3          1           0        6.883445   -0.165190    0.188103
      4          6           0        5.803115    1.685153   -0.037924
      5          1           0        6.698153    2.297937   -0.036061
      6          6           0        4.548389    2.285037   -0.174814
      7          1           0        4.460946    3.358768   -0.286093
      8          6           0        3.418858    1.493030   -0.169062
      9          1           0        2.453909    1.969169   -0.285397
     10          6           0        3.494238    0.096240   -0.035207
     11          6           0        2.295466   -0.773054   -0.017063
     12          6           0        0.950745   -0.178549    0.011442
     13          1           0        0.851958    0.894406    0.100656
     14          6           0       -0.134736   -0.968022   -0.051484
     15          1           0        0.051764   -2.036647   -0.137758
     16          6           0       -1.531529   -0.565839   -0.018719
     17          6           0       -1.955613    0.763459    0.110511
     18          1           0       -1.224053    1.559862    0.191657
     19          6           0       -3.291981    1.101585    0.138457
     20          1           0       -3.558888    2.144793    0.238759
     21          6           0       -4.295953    0.112020    0.041073
     22          6           0       -3.873875   -1.225334   -0.096939
     23          1           0       -4.598279   -2.023368   -0.184880
     24          6           0       -2.528738   -1.541661   -0.121984
     25          1           0       -2.239270   -2.582580   -0.228406
     26          6           0       -6.027510    1.833112    0.113348
     27          1           0       -5.633708    2.341471    0.999706
     28          1           0       -7.113875    1.892906    0.156027
     29          1           0       -5.690558    2.379801   -0.777002
     30          6           0       -6.630465   -0.581826   -0.121597
     31          1           0       -6.544038   -1.053225   -1.109235
     32          1           0       -7.619661   -0.133461   -0.044648
     33          1           0       -6.560838   -1.365021    0.640764
     34          7           0       -5.627426    0.441945    0.083047
     35          8           0        4.957272   -1.809886    0.188837
     36          1           0        4.065917   -2.223588    0.128747
     37          8           0        2.429714   -2.002695   -0.010301
 ---------------------------------------------------------------------

 SCF Done:  E(RwB97XD) =  -863.170180145     A.U. after   17 cycles

 The electronic state is 1-A.
 Alpha  occ. eigenvalues --  -19.25947 -19.23445 -14.47007 -10.38114 -10.35794
 Alpha  occ. eigenvalues --  -10.34667 -10.32939 -10.32892 -10.30937 -10.30146
 Alpha  occ. eigenvalues --  -10.30073 -10.30039 -10.29817 -10.29760 -10.29644
 Alpha  occ. eigenvalues --  -10.29380 -10.29147 -10.28649 -10.28487 -10.28317
 Alpha  occ. eigenvalues --   -1.17067  -1.13803  -1.07390  -0.97037  -0.96295
 Alpha  occ. eigenvalues --   -0.90843  -0.87393  -0.86708  -0.84954  -0.84331
 Alpha  occ. eigenvalues --   -0.83784  -0.78670  -0.74872  -0.72217  -0.71462
 Alpha  occ. eigenvalues --   -0.69911  -0.68018  -0.64750  -0.63153  -0.61648
 Alpha  occ. eigenvalues --   -0.60849  -0.58708  -0.57859  -0.57342  -0.55973
 Alpha  occ. eigenvalues --   -0.55198  -0.54403  -0.53047  -0.52288  -0.52258
 Alpha  occ. eigenvalues --   -0.51900  -0.51430  -0.51024  -0.49766  -0.48319
 Alpha  occ. eigenvalues --   -0.48089  -0.47468  -0.47165  -0.47050  -0.46013
 Alpha  occ. eigenvalues --   -0.45401  -0.42991  -0.42851  -0.42372  -0.41033
 Alpha  occ. eigenvalues --   -0.35092  -0.34492  -0.34443  -0.33894  -0.30090
 Alpha  occ. eigenvalues --   -0.27103
 Alpha virt. eigenvalues --   -0.02017   0.02846   0.03503   0.03954   0.04470
 Alpha virt. eigenvalues --    0.04787   0.04949   0.05692   0.06384   0.06507
 Alpha virt. eigenvalues --    0.06698   0.06730   0.08003   0.08037   0.08231

 Mulliken charges:
               1
     1  C    0.110461
     2  C   -0.429031
     3  H    0.235972
     4  C   -0.390941
     5  H    0.204655
     6  C   -0.431470
     7  H    0.221979
     8  C   -1.278288
     9  H    0.113583
    10  C    1.693086
    11  C   -0.282382
    12  C    0.292585
    13  H   -0.120478
    14  C    0.185898
    15  H    0.224259
    16  C    1.023370
    17  C   -0.756610
    18  H    0.144834
    19  C   -0.323287
    20  H    0.231173
    21  C   -0.575517
    22  C   -0.269228
    23  H    0.185007
    24  C   -0.282239
    25  H    0.212813
    26  C   -0.388525
    27  H    0.164887
    28  H    0.153381
    29  H    0.180544
    30  C   -0.390212
    31  H    0.179406
    32  H    0.154337
    33  H    0.168646
    34  N    0.051089
    35  O   -0.289341
    36  H    0.365329
    37  O   -0.289746
 Sum of Mulliken charges =   0.00000

 Dipole moment (field-independent basis, Debye):
    X=             -6.8669    Y=              3.5307    Z=             -0.2428  Tot=              7.7252
 Quadrupole moment (field-independent basis, Debye-Ang):
   XX=            -89.3925   YY=           -112.4480   ZZ=           -125.2181
   XY=              9.7533   XZ=              0.0875   YZ=              0.8126

 Summary of Natural Population Analysis:

                                       Natural Population
                Natural  -----------------------------------------------
    Atom  No    Charge         Core      Valence    Rydberg      Total
 -----------------------------------------------------------------------
      C    1    0.39128      1.99885     3.58251    0.02737     5.60872
      C    2   -0.26451      1.99909     4.24731    0.01811     6.26451
      H    3    0.22296      0.00000     0.77521    0.00183     0.77704
      C    4   -0.15588      1.99918     4.13967    0.01702     6.15588
      H    5    0.20837      0.00000     0.79015    0.00148     0.79163
      C    6   -0.25539      1.99917     4.23823    0.01799     6.25539
      H    7    0.20967      0.00000     0.78870    0.00162     0.79033
      C    8   -0.14581      1.99914     4.13181    0.01486     6.14581
      H    9    0.20402      0.00000     0.79419    0.00179     0.79598
      C   10   -0.23005      1.99892     4.21512    0.01602     6.23005
      C   11    0.53816      1.99920     3.42501    0.03763     5.46184
      C   12   -0.32177      1.99888     4.30766    0.01523     6.32177
      H   13    0.19633      0.00000     0.80030    0.00337     0.80367
      C   14   -0.05650      1.99891     4.03908    0.01852     6.05650
      H   15    0.21872      0.00000     0.77731    0.00397     0.78128
      C   16   -0.16818      1.99906     4.15077    0.01836     6.16818
      C   17   -0.14203      1.99913     4.12660    0.01630     6.14203
      H   18    0.20363      0.00000     0.79405    0.00232     0.79637
      C   19   -0.25507      1.99894     4.24145    0.01468     6.25507
      H   20    0.21184      0.00000     0.78624    0.00192     0.78816
      C   21    0.22040      1.99906     3.76198    0.01857     5.77960
      C   22   -0.28497      1.99915     4.26958    0.01624     6.28497
      H   23    0.21415      0.00000     0.78405    0.00180     0.78585
      C   24   -0.12089      1.99891     4.10445    0.01752     6.12089
      H   25    0.21116      0.00000     0.78756    0.00128     0.78884
      C   26   -0.35528      1.99933     4.34293    0.01302     6.35528
      H   27    0.19420      0.00000     0.80380    0.00200     0.80580
      H   28    0.20200      0.00000     0.79669    0.00132     0.79800
      H   29    0.18878      0.00000     0.80902    0.00220     0.81122
      C   30   -0.35531      1.99933     4.34307    0.01291     6.35531
      H   31    0.18914      0.00000     0.80864    0.00222     0.81086
      H   32    0.20164      0.00000     0.79703    0.00133     0.79836
      H   33    0.19467      0.00000     0.80335    0.00198     0.80533
      N   34   -0.48927      1.99929     5.47542    0.01457     7.48927
      O   35   -0.67939      1.99973     6.66564    0.01402     8.67939
      H   36    0.50496      0.00000     0.48839    0.00665     0.49504
      O   37   -0.64576      1.99974     6.63195    0.01408     8.64576
 =======================================================================
   * Total *    0.00003     39.98302   101.62489    0.39207   141.99997

 Normal termination of Gaussian 09 at Fri Feb  5 18:05:08 2016.
