 Gaussian 09, Revision D.01,
 Gaussian 09:  ES64L-G09RevD.01 24-Apr-2013

 ----------------------
 #p HF/3-21G* pop=(ESP)
 ----------------------

 -----------------------------
 central molecules ESP Charges
 -----------------------------
 Symbolic Z-matrix:
 Charge =  0 Multiplicity = 1

                         Standard orientation:
 ---------------------------------------------------------------------
 Center     Atomic      Atomic             Coordinates (Angstroms)
 Number     Number       Type             X           Y           Z
 ---------------------------------------------------------------------
      1          6           0       -4.770302   -0.486699    0.071042
      2          6           0       -5.921501    0.313882    0.001018
      3          6           0       -3.475300    0.110594    0.007546
      4          8           0       -4.913430   -1.820993    0.192579
      5          6           0       -5.811379    1.692343   -0.106194
      6          1           0       -6.891169   -0.183624    0.018843
      7          6           0       -3.408530    1.516357   -0.094626
      8          6           0       -2.285460   -0.762901    0.038870
      9          1           0       -3.923229   -2.164657    0.183928
     10          6           0       -4.550030    2.301682   -0.147111
     11          1           0       -6.710406    2.307989   -0.164477
     12          1           0       -2.441699    2.016048   -0.127927
     13          6           0       -0.958392   -0.210046   -0.020910
     14          8           0       -2.466290   -2.032631    0.118489
     15          1           0       -4.465207    3.385768   -0.216535
     16          6           0        0.156375   -1.006352   -0.071038
     17          1           0       -0.849863    0.872648   -0.020557
     18          6           0        1.523575   -0.589219   -0.072591
     19          1           0       -0.013424   -2.088321   -0.090503
     20          6           0        1.940135    0.757592    0.071903
     21          6           0        2.546184   -1.563819   -0.164882
     22          6           0        3.269851    1.107727    0.117617
     23          1           0        1.195947    1.550342    0.157788
     24          6           0        3.883690   -1.234449   -0.130869
     25          1           0        2.257128   -2.611536   -0.259520
     26          6           0        4.294154    0.119953    0.009526
     27          1           0        3.529490    2.156790    0.233297
     28          1           0        4.625478   -2.026540   -0.196000
     29          7           0        5.608262    0.460890    0.036522
     30          6           0        5.997278    1.852828    0.200948
     31          6           0        6.638732   -0.555332   -0.125102
     32          1           0        5.587020    2.270032    1.133635
     33          1           0        7.088309    1.922655    0.237511
     34          1           0        5.637485    2.467442   -0.637558
     35          1           0        6.495585   -1.112484   -1.063386
     36          1           0        7.619263   -0.070103   -0.152015
     37          1           0        6.624741   -1.274537    0.708393
 ---------------------------------------------------------------------

 SCF Done:  E(RHF) =  -853.033776201     A.U. after   16 cycles

 The electronic state is 1-A.
 Alpha  occ. eigenvalues --  -20.44293 -20.43848 -15.52551 -11.29251 -11.25872
 Alpha  occ. eigenvalues --  -11.25632 -11.22437 -11.22390 -11.22094 -11.20812
 Alpha  occ. eigenvalues --  -11.20735 -11.20035 -11.19546 -11.19236 -11.18846
 Alpha  occ. eigenvalues --  -11.18674 -11.18605 -11.17805 -11.17302 -11.16824
 Alpha  occ. eigenvalues --   -1.39099  -1.34704  -1.28667  -1.16570  -1.15002
 Alpha  occ. eigenvalues --   -1.08998  -1.04434  -1.03878  -1.01164  -0.99954
 Alpha  occ. eigenvalues --   -0.99201  -0.93905  -0.88474  -0.85120  -0.84204
 Alpha  occ. eigenvalues --   -0.81303  -0.79530  -0.75143  -0.73019  -0.71211
 Alpha  occ. eigenvalues --   -0.69023  -0.67755  -0.67047  -0.66020  -0.64386
 Alpha  occ. eigenvalues --   -0.63846  -0.62572  -0.60919  -0.60699  -0.59359
 Alpha  occ. eigenvalues --   -0.58458  -0.57948  -0.57913  -0.56983  -0.55177
 Alpha  occ. eigenvalues --   -0.54486  -0.54043  -0.53584  -0.52887  -0.52475
 Alpha  occ. eigenvalues --   -0.51998  -0.48976  -0.48423  -0.46700  -0.45077
 Alpha  occ. eigenvalues --   -0.40446  -0.37765  -0.36295  -0.34859  -0.30230
 Alpha  occ. eigenvalues --   -0.27521
 Alpha virt. eigenvalues --    0.04383   0.11757   0.13577   0.16692   0.20147
 Alpha virt. eigenvalues --    0.23581   0.24402   0.26056   0.27182   0.27476
 Alpha virt. eigenvalues --    0.28109   0.28952   0.31518   0.32827   0.33443

 Mulliken charges:
               1
     1  C    0.477448
     2  C   -0.264761
     3  C   -0.278680
     4  O   -0.787466
     5  C   -0.201431
     6  H    0.262593
     7  C   -0.186650
     8  C    0.597803
     9  H    0.463682
    10  C   -0.272419
    11  H    0.248781
    12  H    0.246342
    13  C   -0.357933
    14  O   -0.713526
    15  H    0.235570
    16  C   -0.077050
    17  H    0.234186
    18  C   -0.175112
    19  H    0.285783
    20  C   -0.172162
    21  C   -0.164259
    22  C   -0.284573
    23  H    0.249051
    24  C   -0.292065
    25  H    0.252237
    26  C    0.499924
    27  H    0.246697
    28  H    0.247048
    29  N   -0.958708
    30  C   -0.321585
    31  C   -0.321487
    32  H    0.212735
    33  H    0.216896
    34  H    0.210976
    35  H    0.213741
    36  H    0.216593
    37  H    0.211783
 Sum of Mulliken charges =   0.00000

 Dipole moment (field-independent basis, Debye):
    X=              8.7408    Y=              4.3548    Z=             -0.3498  Tot=              9.7718
 Quadrupole moment (field-independent basis, Debye-Ang):
   XX=            -93.7062   YY=           -113.4896   ZZ=           -128.7325
   XY=            -14.8178   XZ=              1.6565   YZ=              1.7333

 ESP charges:
               1
     1  C    0.825193
     2  C   -0.564151
     3  C   -0.688873
     4  O   -0.761754
     5  C    0.065105
     6  H    0.242482
     7  C    0.044637
     8  C    0.982220
     9  H    0.523449
    10  C   -0.386704
    11  H    0.150583
    12  H    0.149758
    13  C   -0.661123
    14  O   -0.694104
    15  H    0.189096
    16  C    0.002408
    17  H    0.227799
    18  C    0.013774
    19  H    0.174114
    20  C   -0.058165
    21  C   -0.127451
    22  C   -0.441928
    23  H    0.171220
    24  C   -0.409348
    25  H    0.177384
    26  C    0.415101
    27  H    0.207218
    28  H    0.209095
    29  N   -0.175543
    30  C   -0.243565
    31  C   -0.219754
    32  H    0.103902
    33  H    0.134641
    34  H    0.102143
    35  H    0.095084
    36  H    0.133659
    37  H    0.092400
 Sum of ESP charges =   0.00000

 Normal termination of Gaussian 09 at Thu Feb 23 16:26:52 2017.
