 Gaussian 09, Revision D.01,
 Gaussian 09:  ES64L-G09RevD.01 24-Apr-2013

 ---------------------------------------------------------------
 #wb97xd 6-311++g** Pop=ESP td(nstates=1,root=1) density=current
 ---------------------------------------------------------------

 ----------
 population
 ----------
 Symbolic Z-matrix:
 Charge =  0 Multiplicity = 1

                         Standard orientation:
 ---------------------------------------------------------------------
 Center     Atomic      Atomic             Coordinates (Angstroms)
 Number     Number       Type             X           Y           Z
 ---------------------------------------------------------------------
      1          6           0       -1.345540    0.035991   -0.008478
      2          6           0       -0.000735   -0.596643   -0.029749
      3          6           0       -2.497094   -0.787331    0.005092
      4          6           0       -1.532236    1.427272   -0.002195
      5          6           0        1.194731    0.224967   -0.028811
      6          8           0        0.083150   -1.837998   -0.043295
      7          6           0       -3.770996   -0.205058    0.026072
      8          8           0       -2.431631   -2.119133   -0.000844
      9          6           0       -2.789595    1.996341    0.017843
     10          1           0       -0.671627    2.083785   -0.013733
     11          6           0        2.404314   -0.398376   -0.027765
     12          1           0        1.121419    1.301321   -0.018653
     13          6           0       -3.913470    1.166424    0.032231
     14          1           0       -4.629566   -0.865832    0.036436
     15          1           0       -1.472023   -2.349183   -0.018781
     16          1           0       -2.902062    3.073715    0.021988
     17          1           0        2.406353   -1.484571   -0.016062
     18          7           0        3.613715    0.184728   -0.048563
     19          1           0       -4.907074    1.601159    0.048557
     20          6           0        3.727777    1.628181   -0.035930
     21          6           0        4.827001   -0.593534    0.107084
     22          1           0        3.166873    2.062821   -0.868663
     23          1           0        4.775688    1.907334   -0.143424
     24          1           0        3.344887    2.051097    0.900588
     25          1           0        4.596330   -1.654048    0.008717
     26          1           0        5.284304   -0.427192    1.089160
     27          1           0        5.553407   -0.325846   -0.665437
 ---------------------------------------------------------------------

 SCF Done:  E(RwB97XD) =  -632.152645809     A.U. after   17 cycles

 Excitation energies and oscillator strengths:

 Excited State   1:      Singlet-A      4.1603 eV  298.02 nm  f=0.5220  <S**2>=0.000
      51 -> 52         0.66808
 This state for optimization and/or second-order correction.
 Total Energy, E(TD-HF/TD-KS) =  -631.999758956
 Copying the excited state density for this state as the 1-particle RhoCI density.

 The electronic state is 1-A.
 Alpha  occ. eigenvalues --  -19.25112 -19.22152 -14.48987 -10.37251 -10.35072
 Alpha  occ. eigenvalues --  -10.34493 -10.33911 -10.33642 -10.29459 -10.29214
 Alpha  occ. eigenvalues --  -10.29102 -10.27957 -10.27740 -10.27276  -1.16166
 Alpha  occ. eigenvalues --   -1.12609  -1.08747  -0.95675  -0.89352  -0.86237
 Alpha  occ. eigenvalues --   -0.85246  -0.83764  -0.80032  -0.73716  -0.70095
 Alpha  occ. eigenvalues --   -0.68819  -0.65136  -0.63087  -0.60380  -0.59082
 Alpha  occ. eigenvalues --   -0.58461  -0.58085  -0.55370  -0.53247  -0.51921
 Alpha  occ. eigenvalues --   -0.51703  -0.51468  -0.51344  -0.50371  -0.49499
 Alpha  occ. eigenvalues --   -0.47010  -0.46766  -0.46631  -0.45414  -0.42265
 Alpha  occ. eigenvalues --   -0.42212  -0.41613  -0.33716  -0.33500  -0.30045
 Alpha  occ. eigenvalues --   -0.28778
 Alpha virt. eigenvalues --    0.00355   0.02725   0.04161   0.04949   0.05726
 Alpha virt. eigenvalues --    0.05912   0.06107   0.06489   0.07648   0.08011
 Alpha virt. eigenvalues --    0.08143   0.08292   0.08518   0.09972   0.10494

 Mulliken charges:
               1
     1  C    2.062133
     2  C   -0.754525
     3  C    0.405290
     4  C   -1.810327
     5  C   -0.309426
     6  O   -0.401087
     7  C   -0.479258
     8  O   -0.218285
     9  C   -0.550047
    10  H    0.046715
    11  C    0.558923
    12  H    0.137375
    13  C   -0.444570
    14  H    0.235083
    15  H    0.372060
    16  H    0.238747
    17  H    0.230303
    18  N    0.156903
    19  H    0.200719
    20  C   -0.427395
    21  C   -0.306701
    22  H    0.180023
    23  H    0.192073
    24  H    0.180127
    25  H    0.146983
    26  H    0.185411
    27  H    0.172755
 Sum of Mulliken charges =   0.00000

 Dipole moment (field-independent basis, Debye):
    X=              4.5494    Y=              3.8692    Z=              0.1162  Tot=              5.9734
 Quadrupole moment (field-independent basis, Debye-Ang):
   XX=            -56.7422   YY=            -82.9137   ZZ=            -88.2406
   XY=             -1.5405   XZ=              0.2414   YZ=             -0.2856

 ESP charges:
               1
     1  C   -0.258046
     2  C    0.544792
     3  C    0.592762
     4  C   -0.193290
     5  C   -0.474736
     6  O   -0.697103
     7  C   -0.331316
     8  O   -0.588945
     9  C   -0.099051
    10  H    0.133661
    11  C   -0.069337
    12  H    0.203696
    13  C   -0.184379
    14  H    0.194553
    15  H    0.496949
    16  H    0.145291
    17  H    0.179580
    18  N    0.185577
    19  H    0.150604
    20  C   -0.344853
    21  C   -0.418123
    22  H    0.125032
    23  H    0.141137
    24  H    0.125880
    25  H    0.151294
    26  H    0.146909
    27  H    0.141463
 Sum of ESP charges =   0.00000

 Normal termination of Gaussian 09 at Fri May 19 10:35:24 2017.
